<?xml version="1.0" encoding="UTF-8"?>

<!-- generated on Tue Nov 10 14:58:13 2020 by Eclipse SUMO GUI Version 1.7.0
<configuration xmlns:xsi="http://www.w3.org/2001/XMLSchema-instance" xsi:noNamespaceSchemaLocation="http://sumo.dlr.de/xsd/sumoConfiguration.xsd">

    <input>
        <net-file value="/Users/shuyiyin/Dropbox/UW/proposals/NSF%20CIS/simulation/curbside/seattle-demo/seattle.net.xml"/>
        <route-files value="/Users/shuyiyin/Dropbox/UW/proposals/NSF%20CIS/simulation/curbside/seattle-demo/seattle.trips.xml"/>
        <additional-files value="/Users/shuyiyin/Dropbox/UW/proposals/NSF%20CIS/simulation/curbside/seattle-demo/seattle.add.xml"/>
    </input>

    <output>
        <write-license value="true"/>
        <fcd-output value="/Users/shuyiyin/Dropbox/UW/proposals/NSF%20CIS/simulation/curbside/seattle-demo/fcd.xml"/>
    </output>

    <processing>
        <default.speeddev value="0"/>
    </processing>

    <report>
        <xml-validation value="never"/>
        <xml-validation.routes value="never"/>
        <duration-log.disable value="true"/>
        <no-step-log value="true"/>
    </report>

</configuration>
-->

<fcd-export xmlns:xsi="http://www.w3.org/2001/XMLSchema-instance" xsi:noNamespaceSchemaLocation="http://sumo.dlr.de/xsd/fcd_file.xsd">
</fcd-export>
