<?xml version="1.0" encoding="UTF-8"?>

<!-- generated on Thu Aug  5 00:23:13 2021 by Eclipse SUMO sumo Version 1.8.0
This data file and the accompanying materials
are made available under the terms of the Eclipse Public License v2.0
which accompanies this distribution, and is available at
http://www.eclipse.org/legal/epl-v20.html
SPDX-License-Identifier: EPL-2.0
<configuration xmlns:xsi="http://www.w3.org/2001/XMLSchema-instance" xsi:noNamespaceSchemaLocation="http://sumo.dlr.de/xsd/sumoConfiguration.xsd">

    <input>
        <net-file value="ring.net.xml"/>
        <route-files value="ring.rou.xml"/>
        <additional-files value="ring.add.xml"/>
    </input>

    <output>
        <write-license value="true"/>
    </output>

    <processing>
        <time-to-teleport value="-1"/>
        <default.speeddev value="0"/>
    </processing>

    <report>
        <xml-validation value="never"/>
        <xml-validation.routes value="never"/>
        <duration-log.disable value="true"/>
        <no-step-log value="true"/>
    </report>

    <traci_server>
        <remote-port value="58045"/>
    </traci_server>

</configuration>
-->

<detector xmlns:xsi="http://www.w3.org/2001/XMLSchema-instance" xsi:noNamespaceSchemaLocation="http://sumo.dlr.de/xsd/det_e1_file.xsd">
    <interval begin="0.00" end="900.00" id="L01" nVehContrib="92" flow="368.00" occupancy="6.92" speed="7.67" harmonicMeanSpeed="7.39" length="5.00" nVehEntered="92"/>
    <interval begin="0.00" end="900.00" id="L12" nVehContrib="100" flow="400.00" occupancy="7.47" speed="7.65" harmonicMeanSpeed="7.44" length="5.00" nVehEntered="100"/>
    <interval begin="0.00" end="900.00" id="L23" nVehContrib="110" flow="440.00" occupancy="8.29" speed="7.61" harmonicMeanSpeed="7.37" length="5.00" nVehEntered="110"/>
    <interval begin="0.00" end="900.00" id="L30" nVehContrib="103" flow="412.00" occupancy="7.79" speed="7.59" harmonicMeanSpeed="7.34" length="5.00" nVehEntered="103"/>
    <interval begin="900.00" end="1800.00" id="L01" nVehContrib="184" flow="736.00" occupancy="15.85" speed="6.84" harmonicMeanSpeed="6.45" length="5.00" nVehEntered="184"/>
    <interval begin="900.00" end="1800.00" id="L12" nVehContrib="203" flow="812.00" occupancy="16.54" speed="7.05" harmonicMeanSpeed="6.82" length="5.00" nVehEntered="203"/>
    <interval begin="900.00" end="1800.00" id="L23" nVehContrib="206" flow="824.00" occupancy="17.18" speed="6.95" harmonicMeanSpeed="6.66" length="5.00" nVehEntered="206"/>
    <interval begin="900.00" end="1800.00" id="L30" nVehContrib="194" flow="776.00" occupancy="15.86" speed="6.98" harmonicMeanSpeed="6.80" length="5.00" nVehEntered="194"/>
    <interval begin="1800.00" end="2700.00" id="L01" nVehContrib="300" flow="1200.00" occupancy="34.85" speed="5.59" harmonicMeanSpeed="4.96" length="5.00" nVehEntered="301"/>
    <interval begin="1800.00" end="2700.00" id="L12" nVehContrib="298" flow="1192.00" occupancy="35.87" speed="5.34" harmonicMeanSpeed="4.62" length="5.00" nVehEntered="298"/>
    <interval begin="1800.00" end="2700.00" id="L23" nVehContrib="301" flow="1204.00" occupancy="35.80" speed="5.33" harmonicMeanSpeed="4.67" length="5.00" nVehEntered="301"/>
    <interval begin="1800.00" end="2700.00" id="L30" nVehContrib="301" flow="1204.00" occupancy="35.91" speed="5.31" harmonicMeanSpeed="4.67" length="5.00" nVehEntered="302"/>
    <interval begin="2700.00" end="2820.00" id="L01" nVehContrib="8" flow="240.00" occupancy="57.43" speed="3.28" harmonicMeanSpeed="1.59" length="5.00" nVehEntered="8"/>
    <interval begin="2700.00" end="2820.00" id="L12" nVehContrib="7" flow="210.00" occupancy="63.08" speed="2.26" harmonicMeanSpeed="0.46" length="5.00" nVehEntered="7"/>
    <interval begin="2700.00" end="2820.00" id="L23" nVehContrib="5" flow="150.00" occupancy="65.45" speed="1.97" harmonicMeanSpeed="0.56" length="5.00" nVehEntered="6"/>
    <interval begin="2700.00" end="2820.00" id="L30" nVehContrib="7" flow="210.00" occupancy="84.17" speed="1.79" harmonicMeanSpeed="0.59" length="5.00" nVehEntered="7"/>
</detector>
